<?xml version="1.0" encoding="UTF-8"?>

<!-- generated on 2024-02-09 22:11:00 by Eclipse SUMO GUI Version 1.19.0
<configuration xmlns:xsi="http://www.w3.org/2001/XMLSchema-instance" xsi:noNamespaceSchemaLocation="http://sumo.dlr.de/xsd/sumoConfiguration.xsd">

    <input>
        <net-file value="D:\Sumo_SET\Final\network.net.xml"/>
        <route-files value="D:\Sumo_SET\Final\sorted_random_route.rou.xml"/>
    </input>

    <output>
        <summary-output value="D:\Sumo_SET\Final\summary.xml"/>
        <tripinfo-output value="D:\Sumo_SET\Final\tripinfo.xml"/>
    </output>

    <time>
        <begin value="0"/>
        <end value="1000"/>
    </time>

</configuration>
-->

<tripinfos xmlns:xsi="http://www.w3.org/2001/XMLSchema-instance" xsi:noNamespaceSchemaLocation="http://sumo.dlr.de/xsd/tripinfo_file.xsd">
    <tripinfo id="0" depart="6.00" departLane="edgeOutBottom_0" departPos="5.10" departSpeed="0.00" departDelay="0.47" arrival="16.00" arrivalLane="edgeInTop_0" arrivalPos="42.80" arrivalSpeed="13.49" duration="10.00" routeLength="94.90" waitingTime="0.00" waitingCount="0" stopTime="0.00" timeLoss="3.48" rerouteNo="0" devices="tripinfo_0" vType="bike" speedFactor="1.06" vaporized=""/>
    <tripinfo id="1" depart="15.00" departLane="edgeOutBottom_0" departPos="5.10" departSpeed="0.00" departDelay="0.50" arrival="28.00" arrivalLane="edgeInLeft_0" arrivalPos="42.80" arrivalSpeed="12.90" duration="13.00" routeLength="89.53" waitingTime="0.00" waitingCount="0" stopTime="0.00" timeLoss="4.67" rerouteNo="0" devices="tripinfo_1" vType="bike" speedFactor="0.94" vaporized=""/>
    <tripinfo id="2" depart="22.00" departLane="edgeOutBottom_0" departPos="5.10" departSpeed="0.00" departDelay="0.38" arrival="34.00" arrivalLane="edgeInRight_0" arrivalPos="42.80" arrivalSpeed="13.20" duration="12.00" routeLength="94.70" waitingTime="0.00" waitingCount="0" stopTime="0.00" timeLoss="4.28" rerouteNo="0" devices="tripinfo_2" vType="car" speedFactor="1.01" vaporized=""/>
    <tripinfo id="4" depart="39.00" departLane="edgeOutLeft_0" departPos="5.10" departSpeed="0.00" departDelay="0.87" arrival="50.00" arrivalLane="edgeInRight_0" arrivalPos="42.80" arrivalSpeed="13.04" duration="11.00" routeLength="94.90" waitingTime="0.00" waitingCount="0" stopTime="0.00" timeLoss="3.58" rerouteNo="0" devices="tripinfo_4" vType="bike" speedFactor="1.03" vaporized=""/>
    <tripinfo id="3" depart="32.00" departLane="edgeOutRight_0" departPos="5.10" departSpeed="0.00" departDelay="0.80" arrival="51.00" arrivalLane="edgeInLeft_0" arrivalPos="42.80" arrivalSpeed="14.06" duration="19.00" routeLength="94.90" waitingTime="4.00" waitingCount="1" stopTime="0.00" timeLoss="12.57" rerouteNo="0" devices="tripinfo_3" vType="bike" speedFactor="1.08" vaporized=""/>
    <tripinfo id="6" depart="55.00" departLane="edgeOutLeft_0" departPos="5.10" departSpeed="0.00" departDelay="0.13" arrival="67.00" arrivalLane="edgeInBottom_0" arrivalPos="42.80" arrivalSpeed="13.93" duration="12.00" routeLength="94.70" waitingTime="0.00" waitingCount="0" stopTime="0.00" timeLoss="4.06" rerouteNo="0" devices="tripinfo_6" vType="car" speedFactor="1.05" vaporized=""/>
    <tripinfo id="5" depart="46.00" departLane="edgeOutTop_0" departPos="5.10" departSpeed="0.00" departDelay="0.59" arrival="97.00" arrivalLane="edgeInBottom_0" arrivalPos="42.80" arrivalSpeed="10.86" duration="51.00" routeLength="94.90" waitingTime="34.00" waitingCount="1" stopTime="0.00" timeLoss="42.46" rerouteNo="0" devices="tripinfo_5" vType="bike" speedFactor="0.83" vaporized=""/>
    <tripinfo id="7" depart="62.00" departLane="edgeOutBottom_0" departPos="5.10" departSpeed="0.00" departDelay="0.08" arrival="97.00" arrivalLane="edgeInTop_0" arrivalPos="42.80" arrivalSpeed="11.74" duration="35.00" routeLength="94.90" waitingTime="19.00" waitingCount="1" stopTime="0.00" timeLoss="26.82" rerouteNo="0" devices="tripinfo_7" vType="car" speedFactor="0.89" vaporized=""/>
    <tripinfo id="8" depart="72.00" departLane="edgeOutBottom_0" departPos="5.10" departSpeed="0.00" departDelay="0.67" arrival="99.00" arrivalLane="edgeInLeft_0" arrivalPos="42.80" arrivalSpeed="12.52" duration="27.00" routeLength="89.53" waitingTime="11.00" waitingCount="1" stopTime="0.00" timeLoss="19.33" rerouteNo="0" devices="tripinfo_8" vType="bus" speedFactor="0.94" vaporized=""/>
    <tripinfo id="9" depart="79.00" departLane="edgeOutBottom_0" departPos="5.10" departSpeed="0.00" departDelay="0.51" arrival="103.00" arrivalLane="edgeInLeft_0" arrivalPos="42.80" arrivalSpeed="10.99" duration="24.00" routeLength="89.53" waitingTime="5.00" waitingCount="1" stopTime="0.00" timeLoss="15.08" rerouteNo="0" devices="tripinfo_9" vType="bike" speedFactor="0.86" vaporized=""/>
    <tripinfo id="11" depart="93.00" departLane="edgeOutTop_0" departPos="5.10" departSpeed="0.00" departDelay="0.64" arrival="105.00" arrivalLane="edgeInLeft_0" arrivalPos="42.80" arrivalSpeed="13.12" duration="12.00" routeLength="94.70" waitingTime="0.00" waitingCount="0" stopTime="0.00" timeLoss="4.64" rerouteNo="0" devices="tripinfo_11" vType="bus" speedFactor="1.03" vaporized=""/>
    <tripinfo id="13" depart="112.00" departLane="edgeOutBottom_0" departPos="5.10" departSpeed="0.00" departDelay="0.55" arrival="124.00" arrivalLane="edgeInLeft_0" arrivalPos="42.80" arrivalSpeed="14.67" duration="12.00" routeLength="89.53" waitingTime="0.00" waitingCount="0" stopTime="0.00" timeLoss="5.32" rerouteNo="0" devices="tripinfo_13" vType="bike" speedFactor="1.12" vaporized=""/>
    <tripinfo id="12" depart="103.00" departLane="edgeOutLeft_0" departPos="5.10" departSpeed="0.00" departDelay="0.90" arrival="142.00" arrivalLane="edgeInRight_0" arrivalPos="42.80" arrivalSpeed="13.96" duration="39.00" routeLength="94.90" waitingTime="23.00" waitingCount="1" stopTime="0.00" timeLoss="31.55" rerouteNo="0" devices="tripinfo_12" vType="car" speedFactor="1.05" vaporized=""/>
    <tripinfo id="14" depart="122.00" departLane="edgeOutLeft_0" departPos="5.10" departSpeed="0.00" departDelay="0.74" arrival="145.00" arrivalLane="edgeInTop_0" arrivalPos="42.80" arrivalSpeed="13.01" duration="23.00" routeLength="89.53" waitingTime="6.00" waitingCount="1" stopTime="0.00" timeLoss="15.31" rerouteNo="0" devices="tripinfo_14" vType="car" speedFactor="0.99" vaporized=""/>
    <tripinfo id="10" depart="86.00" departLane="edgeOutRight_0" departPos="5.10" departSpeed="0.00" departDelay="0.07" arrival="148.00" arrivalLane="edgeInTop_0" arrivalPos="42.80" arrivalSpeed="14.00" duration="62.00" routeLength="94.70" waitingTime="43.00" waitingCount="2" stopTime="0.00" timeLoss="54.48" rerouteNo="0" devices="tripinfo_10" vType="bike" speedFactor="1.09" vaporized=""/>
    <tripinfo id="15" depart="131.00" departLane="edgeOutRight_0" departPos="5.10" departSpeed="0.00" departDelay="0.14" arrival="149.00" arrivalLane="edgeInLeft_0" arrivalPos="42.80" arrivalSpeed="12.19" duration="18.00" routeLength="94.90" waitingTime="1.00" waitingCount="1" stopTime="0.00" timeLoss="10.36" rerouteNo="0" devices="tripinfo_15" vType="bike" speedFactor="0.93" vaporized=""/>
    <tripinfo id="16" depart="137.00" departLane="edgeOutRight_0" departPos="5.10" departSpeed="0.00" departDelay="0.22" arrival="152.00" arrivalLane="edgeInBottom_0" arrivalPos="42.80" arrivalSpeed="10.99" duration="15.00" routeLength="89.53" waitingTime="0.00" waitingCount="0" stopTime="0.00" timeLoss="6.46" rerouteNo="0" devices="tripinfo_16" vType="bus" speedFactor="0.88" vaporized=""/>
    <tripinfo id="17" depart="142.00" departLane="edgeOutLeft_0" departPos="5.10" departSpeed="0.00" departDelay="0.13" arrival="153.00" arrivalLane="edgeInRight_0" arrivalPos="42.80" arrivalSpeed="11.94" duration="11.00" routeLength="94.90" waitingTime="0.00" waitingCount="0" stopTime="0.00" timeLoss="3.47" rerouteNo="0" devices="tripinfo_17" vType="car" speedFactor="0.94" vaporized=""/>
    <tripinfo id="18" depart="150.00" departLane="edgeOutRight_0" departPos="5.10" departSpeed="0.00" departDelay="0.04" arrival="161.00" arrivalLane="edgeInLeft_0" arrivalPos="42.80" arrivalSpeed="12.39" duration="11.00" routeLength="94.90" waitingTime="0.00" waitingCount="0" stopTime="0.00" timeLoss="2.91" rerouteNo="0" devices="tripinfo_18" vType="car" speedFactor="0.94" vaporized=""/>
    <tripinfo id="19" depart="158.00" departLane="edgeOutRight_0" departPos="5.10" departSpeed="0.00" departDelay="0.96" arrival="170.00" arrivalLane="edgeInBottom_0" arrivalPos="42.80" arrivalSpeed="14.28" duration="12.00" routeLength="89.53" waitingTime="0.00" waitingCount="0" stopTime="0.00" timeLoss="5.52" rerouteNo="0" devices="tripinfo_19" vType="bus" speedFactor="1.16" vaporized=""/>
    <tripinfo id="20" depart="164.00" departLane="edgeOutLeft_0" departPos="5.10" departSpeed="0.00" departDelay="0.09" arrival="176.00" arrivalLane="edgeInTop_0" arrivalPos="42.80" arrivalSpeed="13.74" duration="12.00" routeLength="89.53" waitingTime="0.00" waitingCount="0" stopTime="0.00" timeLoss="4.93" rerouteNo="0" devices="tripinfo_20" vType="car" speedFactor="1.02" vaporized=""/>
    <tripinfo id="21" depart="172.00" departLane="edgeOutBottom_0" departPos="5.10" departSpeed="0.00" departDelay="0.03" arrival="186.00" arrivalLane="edgeInRight_0" arrivalPos="42.80" arrivalSpeed="13.25" duration="14.00" routeLength="94.70" waitingTime="0.00" waitingCount="0" stopTime="0.00" timeLoss="6.28" rerouteNo="0" devices="tripinfo_21" vType="bus" speedFactor="1.01" vaporized=""/>
    <tripinfo id="22" depart="180.00" departLane="edgeOutTop_0" departPos="5.10" departSpeed="0.00" departDelay="0.58" arrival="193.00" arrivalLane="edgeInRight_0" arrivalPos="42.80" arrivalSpeed="13.33" duration="13.00" routeLength="89.53" waitingTime="0.00" waitingCount="0" stopTime="0.00" timeLoss="5.19" rerouteNo="0" devices="tripinfo_22" vType="bus" speedFactor="0.97" vaporized=""/>
    <tripinfo id="23" depart="189.00" departLane="edgeOutTop_0" departPos="5.10" departSpeed="0.00" departDelay="0.67" arrival="200.00" arrivalLane="edgeInBottom_0" arrivalPos="42.80" arrivalSpeed="11.83" duration="11.00" routeLength="94.90" waitingTime="0.00" waitingCount="0" stopTime="0.00" timeLoss="2.47" rerouteNo="0" devices="tripinfo_23" vType="bike" speedFactor="0.89" vaporized=""/>
    <tripinfo id="24" depart="195.00" departLane="edgeOutBottom_0" departPos="5.10" departSpeed="0.00" departDelay="0.16" arrival="209.00" arrivalLane="edgeInLeft_0" arrivalPos="42.80" arrivalSpeed="11.10" duration="14.00" routeLength="89.53" waitingTime="0.00" waitingCount="0" stopTime="0.00" timeLoss="4.48" rerouteNo="0" devices="tripinfo_24" vType="car" speedFactor="0.83" vaporized=""/>
    <tripinfo id="26" depart="212.00" departLane="edgeOutTop_0" departPos="5.10" departSpeed="0.00" departDelay="0.67" arrival="225.00" arrivalLane="edgeInLeft_0" arrivalPos="42.80" arrivalSpeed="12.21" duration="13.00" routeLength="94.70" waitingTime="0.00" waitingCount="0" stopTime="0.00" timeLoss="4.41" rerouteNo="0" devices="tripinfo_26" vType="bike" speedFactor="0.92" vaporized=""/>
    <tripinfo id="25" depart="203.00" departLane="edgeOutRight_0" departPos="5.10" departSpeed="0.00" departDelay="0.94" arrival="232.00" arrivalLane="edgeInLeft_0" arrivalPos="42.80" arrivalSpeed="10.86" duration="29.00" routeLength="94.90" waitingTime="12.00" waitingCount="1" stopTime="0.00" timeLoss="20.65" rerouteNo="0" devices="tripinfo_25" vType="bus" speedFactor="0.87" vaporized=""/>
    <tripinfo id="27" depart="220.00" departLane="edgeOutRight_0" departPos="5.10" departSpeed="0.00" departDelay="0.19" arrival="234.00" arrivalLane="edgeInTop_0" arrivalPos="42.80" arrivalSpeed="11.92" duration="14.00" routeLength="94.70" waitingTime="0.00" waitingCount="0" stopTime="0.00" timeLoss="6.09" rerouteNo="0" devices="tripinfo_27" vType="car" speedFactor="0.95" vaporized=""/>
    <tripinfo id="28" depart="230.00" departLane="edgeOutRight_0" departPos="5.10" departSpeed="0.00" departDelay="0.38" arrival="241.00" arrivalLane="edgeInLeft_0" arrivalPos="42.80" arrivalSpeed="15.45" duration="11.00" routeLength="94.90" waitingTime="0.00" waitingCount="0" stopTime="0.00" timeLoss="3.99" rerouteNo="0" devices="tripinfo_28" vType="car" speedFactor="1.13" vaporized=""/>
    <tripinfo id="29" depart="238.00" departLane="edgeOutLeft_0" departPos="5.10" departSpeed="0.00" departDelay="0.66" arrival="251.00" arrivalLane="edgeInTop_0" arrivalPos="42.80" arrivalSpeed="12.68" duration="13.00" routeLength="89.53" waitingTime="0.00" waitingCount="0" stopTime="0.00" timeLoss="4.76" rerouteNo="0" devices="tripinfo_29" vType="car" speedFactor="0.93" vaporized=""/>
    <tripinfo id="31" depart="250.00" departLane="edgeOutLeft_0" departPos="5.10" departSpeed="0.00" departDelay="0.37" arrival="260.00" arrivalLane="edgeInRight_0" arrivalPos="42.80" arrivalSpeed="14.75" duration="10.00" routeLength="94.90" waitingTime="0.00" waitingCount="0" stopTime="0.00" timeLoss="3.41" rerouteNo="0" devices="tripinfo_31" vType="bus" speedFactor="1.15" vaporized=""/>
    <tripinfo id="30" depart="245.00" departLane="edgeOutBottom_0" departPos="5.10" departSpeed="0.00" departDelay="0.88" arrival="277.00" arrivalLane="edgeInTop_0" arrivalPos="42.80" arrivalSpeed="15.25" duration="32.00" routeLength="94.90" waitingTime="16.00" waitingCount="1" stopTime="0.00" timeLoss="25.48" rerouteNo="0" devices="tripinfo_30" vType="car" speedFactor="1.18" vaporized=""/>
    <tripinfo id="32" depart="257.00" departLane="edgeOutBottom_0" departPos="5.10" departSpeed="0.00" departDelay="0.20" arrival="279.00" arrivalLane="edgeInRight_0" arrivalPos="42.80" arrivalSpeed="13.38" duration="22.00" routeLength="94.70" waitingTime="5.00" waitingCount="1" stopTime="0.00" timeLoss="14.05" rerouteNo="0" devices="tripinfo_32" vType="bike" speedFactor="1.01" vaporized=""/>
    <tripinfo id="33" depart="266.00" departLane="edgeOutRight_0" departPos="5.10" departSpeed="0.00" departDelay="0.97" arrival="321.00" arrivalLane="edgeInBottom_0" arrivalPos="42.80" arrivalSpeed="14.23" duration="55.00" routeLength="89.53" waitingTime="40.00" waitingCount="1" stopTime="0.00" timeLoss="48.86" rerouteNo="0" devices="tripinfo_33" vType="bus" speedFactor="1.17" vaporized=""/>
    <tripinfo id="36" depart="287.00" departLane="edgeOutRight_0" departPos="5.10" departSpeed="0.00" departDelay="0.10" arrival="325.00" arrivalLane="edgeInTop_0" arrivalPos="42.80" arrivalSpeed="12.74" duration="38.00" routeLength="94.70" waitingTime="21.00" waitingCount="1" stopTime="0.00" timeLoss="29.39" rerouteNo="0" devices="tripinfo_36" vType="car" speedFactor="0.97" vaporized=""/>
    <tripinfo id="37" depart="295.00" departLane="edgeOutRight_0" departPos="5.10" departSpeed="0.00" departDelay="0.69" arrival="325.00" arrivalLane="edgeInLeft_0" arrivalPos="42.80" arrivalSpeed="16.23" duration="30.00" routeLength="94.90" waitingTime="14.00" waitingCount="1" stopTime="0.00" timeLoss="24.00" rerouteNo="0" devices="tripinfo_37" vType="bike" speedFactor="1.18" vaporized=""/>
    <tripinfo id="38" depart="304.00" departLane="edgeOutRight_0" departPos="5.10" departSpeed="0.00" departDelay="0.05" arrival="328.00" arrivalLane="edgeInLeft_0" arrivalPos="42.80" arrivalSpeed="14.20" duration="24.00" routeLength="94.90" waitingTime="7.00" waitingCount="1" stopTime="0.00" timeLoss="16.92" rerouteNo="0" devices="tripinfo_38" vType="bike" speedFactor="1.10" vaporized=""/>
    <tripinfo id="39" depart="312.00" departLane="edgeOutRight_0" departPos="5.10" departSpeed="0.00" departDelay="0.53" arrival="332.00" arrivalLane="edgeInTop_0" arrivalPos="42.80" arrivalSpeed="11.77" duration="20.00" routeLength="94.70" waitingTime="3.00" waitingCount="1" stopTime="0.00" timeLoss="11.66" rerouteNo="0" devices="tripinfo_39" vType="car" speedFactor="0.90" vaporized=""/>
    <tripinfo id="34" depart="271.00" departLane="edgeOutLeft_0" departPos="5.10" departSpeed="0.00" departDelay="0.50" arrival="335.00" arrivalLane="edgeInBottom_0" arrivalPos="42.80" arrivalSpeed="12.95" duration="64.00" routeLength="94.70" waitingTime="44.00" waitingCount="2" stopTime="0.00" timeLoss="55.44" rerouteNo="0" devices="tripinfo_34" vType="bus" speedFactor="0.99" vaporized=""/>
    <tripinfo id="35" depart="280.00" departLane="edgeOutLeft_0" departPos="5.10" departSpeed="0.00" departDelay="0.73" arrival="337.00" arrivalLane="edgeInBottom_0" arrivalPos="42.80" arrivalSpeed="13.06" duration="57.00" routeLength="94.70" waitingTime="37.00" waitingCount="2" stopTime="0.00" timeLoss="48.76" rerouteNo="0" devices="tripinfo_35" vType="car" speedFactor="1.02" vaporized=""/>
    <tripinfo id="43" depart="348.00" departLane="edgeOutRight_0" departPos="5.10" departSpeed="0.00" departDelay="0.07" arrival="359.00" arrivalLane="edgeInLeft_0" arrivalPos="42.80" arrivalSpeed="13.59" duration="11.00" routeLength="94.90" waitingTime="0.00" waitingCount="0" stopTime="0.00" timeLoss="3.59" rerouteNo="0" devices="tripinfo_43" vType="car" speedFactor="1.04" vaporized=""/>
    <tripinfo id="42" depart="339.00" departLane="edgeOutBottom_0" departPos="5.10" departSpeed="0.00" departDelay="0.33" arrival="366.00" arrivalLane="edgeInTop_0" arrivalPos="42.80" arrivalSpeed="14.93" duration="27.00" routeLength="94.90" waitingTime="13.00" waitingCount="1" stopTime="0.00" timeLoss="20.64" rerouteNo="0" devices="tripinfo_42" vType="bus" speedFactor="1.09" vaporized=""/>
    <tripinfo id="45" depart="360.00" departLane="edgeOutBottom_0" departPos="5.10" departSpeed="0.00" departDelay="0.33" arrival="370.00" arrivalLane="edgeInTop_0" arrivalPos="42.80" arrivalSpeed="14.61" duration="10.00" routeLength="94.90" waitingTime="0.00" waitingCount="0" stopTime="0.00" timeLoss="3.53" rerouteNo="0" devices="tripinfo_45" vType="bike" speedFactor="1.09" vaporized=""/>
    <tripinfo id="40" depart="322.00" departLane="edgeOutTop_0" departPos="5.10" departSpeed="0.00" departDelay="0.82" arrival="374.00" arrivalLane="edgeInLeft_0" arrivalPos="42.80" arrivalSpeed="13.80" duration="52.00" routeLength="94.70" waitingTime="35.00" waitingCount="2" stopTime="0.00" timeLoss="44.00" rerouteNo="0" devices="tripinfo_40" vType="car" speedFactor="1.03" vaporized=""/>
    <tripinfo id="41" depart="332.00" departLane="edgeOutTop_0" departPos="5.10" departSpeed="0.00" departDelay="1.73" arrival="376.00" arrivalLane="edgeInRight_0" arrivalPos="42.80" arrivalSpeed="12.58" duration="44.00" routeLength="89.53" waitingTime="24.00" waitingCount="2" stopTime="0.00" timeLoss="36.00" rerouteNo="0" devices="tripinfo_41" vType="car" speedFactor="0.96" vaporized=""/>
    <tripinfo id="44" depart="355.00" departLane="edgeOutTop_0" departPos="5.10" departSpeed="0.00" departDelay="0.44" arrival="379.00" arrivalLane="edgeInLeft_0" arrivalPos="42.80" arrivalSpeed="13.91" duration="24.00" routeLength="94.70" waitingTime="3.00" waitingCount="1" stopTime="0.00" timeLoss="16.48" rerouteNo="0" devices="tripinfo_44" vType="bike" speedFactor="1.04" vaporized=""/>
    <tripinfo id="47" depart="375.00" departLane="edgeOutBottom_0" departPos="5.10" departSpeed="0.00" departDelay="0.58" arrival="388.00" arrivalLane="edgeInRight_0" arrivalPos="42.80" arrivalSpeed="11.31" duration="13.00" routeLength="94.70" waitingTime="0.00" waitingCount="0" stopTime="0.00" timeLoss="3.67" rerouteNo="0" devices="tripinfo_47" vType="bus" speedFactor="0.90" vaporized=""/>
    <tripinfo id="48" depart="382.00" departLane="edgeOutBottom_0" departPos="5.10" departSpeed="0.00" departDelay="0.02" arrival="393.00" arrivalLane="edgeInTop_0" arrivalPos="42.80" arrivalSpeed="10.89" duration="11.00" routeLength="94.90" waitingTime="0.00" waitingCount="0" stopTime="0.00" timeLoss="2.78" rerouteNo="0" devices="tripinfo_48" vType="bus" speedFactor="0.88" vaporized=""/>
    <tripinfo id="49" depart="388.00" departLane="edgeOutBottom_0" departPos="5.10" departSpeed="0.00" departDelay="0.40" arrival="399.00" arrivalLane="edgeInTop_0" arrivalPos="42.80" arrivalSpeed="10.85" duration="11.00" routeLength="94.90" waitingTime="0.00" waitingCount="0" stopTime="0.00" timeLoss="2.76" rerouteNo="0" devices="tripinfo_49" vType="car" speedFactor="0.85" vaporized=""/>
    <tripinfo id="46" depart="369.00" departLane="edgeOutLeft_0" departPos="5.10" departSpeed="0.00" departDelay="0.24" arrival="412.00" arrivalLane="edgeInBottom_0" arrivalPos="42.80" arrivalSpeed="13.82" duration="43.00" routeLength="94.70" waitingTime="27.00" waitingCount="1" stopTime="0.00" timeLoss="34.89" rerouteNo="0" devices="tripinfo_46" vType="bike" speedFactor="1.00" vaporized=""/>
    <tripinfo id="52" depart="414.00" departLane="edgeOutLeft_0" departPos="5.10" departSpeed="0.00" departDelay="0.35" arrival="426.00" arrivalLane="edgeInTop_0" arrivalPos="42.80" arrivalSpeed="14.10" duration="12.00" routeLength="89.53" waitingTime="0.00" waitingCount="0" stopTime="0.00" timeLoss="4.78" rerouteNo="0" devices="tripinfo_52" vType="bike" speedFactor="1.02" vaporized=""/>
    <tripinfo id="54" depart="429.00" departLane="edgeOutLeft_0" departPos="5.10" departSpeed="0.00" departDelay="0.98" arrival="441.00" arrivalLane="edgeInTop_0" arrivalPos="42.80" arrivalSpeed="13.36" duration="12.00" routeLength="89.53" waitingTime="0.00" waitingCount="0" stopTime="0.00" timeLoss="4.80" rerouteNo="0" devices="tripinfo_54" vType="car" speedFactor="1.00" vaporized=""/>
    <tripinfo id="55" depart="437.00" departLane="edgeOutRight_0" departPos="5.10" departSpeed="0.00" departDelay="0.68" arrival="449.00" arrivalLane="edgeInTop_0" arrivalPos="42.80" arrivalSpeed="12.84" duration="12.00" routeLength="94.70" waitingTime="0.00" waitingCount="0" stopTime="0.00" timeLoss="4.15" rerouteNo="0" devices="tripinfo_55" vType="bus" speedFactor="1.00" vaporized=""/>
    <tripinfo id="50" depart="397.00" departLane="edgeOutTop_0" departPos="5.10" departSpeed="0.00" departDelay="0.88" arrival="457.00" arrivalLane="edgeInRight_0" arrivalPos="42.80" arrivalSpeed="10.92" duration="60.00" routeLength="89.53" waitingTime="45.00" waitingCount="1" stopTime="0.00" timeLoss="51.42" rerouteNo="0" devices="tripinfo_50" vType="car" speedFactor="0.85" vaporized=""/>
    <tripinfo id="51" depart="406.00" departLane="edgeOutTop_0" departPos="5.10" departSpeed="0.00" departDelay="0.16" arrival="459.00" arrivalLane="edgeInLeft_0" arrivalPos="42.80" arrivalSpeed="15.44" duration="53.00" routeLength="94.70" waitingTime="37.00" waitingCount="1" stopTime="0.00" timeLoss="45.80" rerouteNo="0" devices="tripinfo_51" vType="bus" speedFactor="1.17" vaporized=""/>
    <tripinfo id="53" depart="421.00" departLane="edgeOutBottom_0" departPos="5.10" departSpeed="0.00" departDelay="0.99" arrival="462.00" arrivalLane="edgeInRight_0" arrivalPos="42.80" arrivalSpeed="14.54" duration="41.00" routeLength="94.70" waitingTime="20.00" waitingCount="2" stopTime="0.00" timeLoss="33.41" rerouteNo="0" devices="tripinfo_53" vType="car" speedFactor="1.10" vaporized=""/>
    <tripinfo id="59" depart="463.00" departLane="edgeOutTop_0" departPos="5.10" departSpeed="0.00" departDelay="0.45" arrival="476.00" arrivalLane="edgeInLeft_0" arrivalPos="42.80" arrivalSpeed="13.21" duration="13.00" routeLength="94.70" waitingTime="0.00" waitingCount="0" stopTime="0.00" timeLoss="4.92" rerouteNo="0" devices="tripinfo_59" vType="car" speedFactor="0.97" vaporized=""/>
    <tripinfo id="60" depart="471.00" departLane="edgeOutBottom_0" departPos="5.10" departSpeed="0.00" departDelay="0.01" arrival="481.00" arrivalLane="edgeInTop_0" arrivalPos="42.80" arrivalSpeed="14.24" duration="10.00" routeLength="94.90" waitingTime="0.00" waitingCount="0" stopTime="0.00" timeLoss="3.49" rerouteNo="0" devices="tripinfo_60" vType="bike" speedFactor="1.08" vaporized=""/>
    <tripinfo id="57" depart="452.00" departLane="edgeOutRight_0" departPos="5.10" departSpeed="0.00" departDelay="0.60" arrival="501.00" arrivalLane="edgeInBottom_0" arrivalPos="42.80" arrivalSpeed="14.76" duration="49.00" routeLength="89.53" waitingTime="34.00" waitingCount="1" stopTime="0.00" timeLoss="42.57" rerouteNo="0" devices="tripinfo_57" vType="bike" speedFactor="1.14" vaporized=""/>
    <tripinfo id="58" depart="457.00" departLane="edgeOutRight_0" departPos="5.10" departSpeed="0.00" departDelay="0.59" arrival="504.00" arrivalLane="edgeInTop_0" arrivalPos="42.80" arrivalSpeed="13.66" duration="47.00" routeLength="94.70" waitingTime="30.00" waitingCount="1" stopTime="0.00" timeLoss="39.23" rerouteNo="0" devices="tripinfo_58" vType="bus" speedFactor="1.02" vaporized=""/>
    <tripinfo id="62" depart="484.00" departLane="edgeOutRight_0" departPos="5.10" departSpeed="0.00" departDelay="0.34" arrival="506.00" arrivalLane="edgeInBottom_0" arrivalPos="42.80" arrivalSpeed="13.40" duration="22.00" routeLength="89.53" waitingTime="7.00" waitingCount="1" stopTime="0.00" timeLoss="15.06" rerouteNo="0" devices="tripinfo_62" vType="car" speedFactor="1.02" vaporized=""/>
    <tripinfo id="56" depart="443.00" departLane="edgeOutLeft_0" departPos="5.10" departSpeed="0.00" departDelay="0.45" arrival="510.00" arrivalLane="edgeInBottom_0" arrivalPos="42.80" arrivalSpeed="12.46" duration="67.00" routeLength="94.70" waitingTime="49.00" waitingCount="2" stopTime="0.00" timeLoss="57.77" rerouteNo="0" devices="tripinfo_56" vType="bus" speedFactor="0.90" vaporized=""/>
    <tripinfo id="61" depart="479.00" departLane="edgeOutLeft_0" departPos="5.10" departSpeed="0.00" departDelay="0.84" arrival="510.00" arrivalLane="edgeInTop_0" arrivalPos="42.80" arrivalSpeed="14.78" duration="31.00" routeLength="89.53" waitingTime="11.00" waitingCount="2" stopTime="0.00" timeLoss="24.49" rerouteNo="0" devices="tripinfo_61" vType="bike" speedFactor="1.12" vaporized=""/>
    <tripinfo id="66" depart="514.00" departLane="edgeOutRight_0" departPos="5.10" departSpeed="0.00" departDelay="0.27" arrival="525.00" arrivalLane="edgeInLeft_0" arrivalPos="42.80" arrivalSpeed="12.27" duration="11.00" routeLength="94.90" waitingTime="0.00" waitingCount="0" stopTime="0.00" timeLoss="2.93" rerouteNo="0" devices="tripinfo_66" vType="car" speedFactor="0.91" vaporized=""/>
    <tripinfo id="67" depart="521.00" departLane="edgeOutLeft_0" departPos="5.10" departSpeed="0.00" departDelay="0.36" arrival="533.00" arrivalLane="edgeInTop_0" arrivalPos="42.80" arrivalSpeed="11.90" duration="12.00" routeLength="89.53" waitingTime="0.00" waitingCount="0" stopTime="0.00" timeLoss="4.37" rerouteNo="0" devices="tripinfo_67" vType="car" speedFactor="0.91" vaporized=""/>
    <tripinfo id="68" depart="527.00" departLane="edgeOutRight_0" departPos="5.10" departSpeed="0.00" departDelay="0.98" arrival="538.00" arrivalLane="edgeInLeft_0" arrivalPos="42.80" arrivalSpeed="13.75" duration="11.00" routeLength="94.90" waitingTime="0.00" waitingCount="0" stopTime="0.00" timeLoss="3.71" rerouteNo="0" devices="tripinfo_68" vType="bike" speedFactor="1.04" vaporized=""/>
    <tripinfo id="63" depart="491.00" departLane="edgeOutTop_0" departPos="5.10" departSpeed="0.00" departDelay="0.57" arrival="547.00" arrivalLane="edgeInBottom_0" arrivalPos="42.80" arrivalSpeed="13.51" duration="56.00" routeLength="94.90" waitingTime="41.00" waitingCount="1" stopTime="0.00" timeLoss="48.88" rerouteNo="0" devices="tripinfo_63" vType="bus" speedFactor="0.99" vaporized=""/>
    <tripinfo id="64" depart="501.00" departLane="edgeOutBottom_0" departPos="5.10" departSpeed="0.00" departDelay="1.40" arrival="547.00" arrivalLane="edgeInTop_0" arrivalPos="42.80" arrivalSpeed="12.26" duration="46.00" routeLength="94.90" waitingTime="30.00" waitingCount="1" stopTime="0.00" timeLoss="38.51" rerouteNo="0" devices="tripinfo_64" vType="bus" speedFactor="0.94" vaporized=""/>
    <tripinfo id="65" depart="510.00" departLane="edgeOutBottom_0" departPos="5.10" departSpeed="0.00" departDelay="1.61" arrival="550.00" arrivalLane="edgeInLeft_0" arrivalPos="42.80" arrivalSpeed="12.18" duration="40.00" routeLength="89.53" waitingTime="23.00" waitingCount="1" stopTime="0.00" timeLoss="30.89" rerouteNo="0" devices="tripinfo_65" vType="car" speedFactor="0.88" vaporized=""/>
    <tripinfo id="70" depart="540.00" departLane="edgeOutBottom_0" departPos="5.10" departSpeed="0.00" departDelay="0.90" arrival="553.00" arrivalLane="edgeInRight_0" arrivalPos="42.80" arrivalSpeed="13.67" duration="13.00" routeLength="94.70" waitingTime="0.00" waitingCount="0" stopTime="0.00" timeLoss="5.76" rerouteNo="0" devices="tripinfo_70" vType="bike" speedFactor="1.02" vaporized=""/>
    <tripinfo id="71" depart="548.00" departLane="edgeOutTop_0" departPos="5.10" departSpeed="0.00" departDelay="0.38" arrival="561.00" arrivalLane="edgeInLeft_0" arrivalPos="42.80" arrivalSpeed="13.46" duration="13.00" routeLength="94.70" waitingTime="0.00" waitingCount="0" stopTime="0.00" timeLoss="4.74" rerouteNo="0" devices="tripinfo_71" vType="bike" speedFactor="0.97" vaporized=""/>
    <tripinfo id="72" depart="555.00" departLane="edgeOutBottom_0" departPos="5.10" departSpeed="0.00" departDelay="0.61" arrival="568.00" arrivalLane="edgeInRight_0" arrivalPos="42.80" arrivalSpeed="12.84" duration="13.00" routeLength="94.70" waitingTime="0.00" waitingCount="0" stopTime="0.00" timeLoss="4.89" rerouteNo="0" devices="tripinfo_72" vType="car" speedFactor="0.94" vaporized=""/>
    <tripinfo id="74" depart="569.00" departLane="edgeOutTop_0" departPos="5.10" departSpeed="0.00" departDelay="0.48" arrival="582.00" arrivalLane="edgeInLeft_0" arrivalPos="42.80" arrivalSpeed="13.00" duration="13.00" routeLength="94.70" waitingTime="0.00" waitingCount="0" stopTime="0.00" timeLoss="5.11" rerouteNo="0" devices="tripinfo_74" vType="car" speedFactor="0.96" vaporized=""/>
    <tripinfo id="75" depart="576.00" departLane="edgeOutBottom_0" departPos="5.10" departSpeed="0.00" departDelay="0.13" arrival="588.00" arrivalLane="edgeInLeft_0" arrivalPos="42.80" arrivalSpeed="12.86" duration="12.00" routeLength="89.53" waitingTime="0.00" waitingCount="0" stopTime="0.00" timeLoss="4.73" rerouteNo="0" devices="tripinfo_75" vType="bus" speedFactor="0.98" vaporized=""/>